/*--------------------------------*- C++ -*----------------------------------*\
| =========                 |                                                 |
| \\      /  F ield         | OpenFOAM: The Open Source CFD Toolbox           |
|  \\    /   O peration     | Version:  2.3.0                                 |
|   \\  /    A nd           | Web:      www.OpenFOAM.org                      |
|    \\/     M anipulation  |                                                 |
\*---------------------------------------------------------------------------*/
FoamFile
{
    version     2.0;
    format      ascii;
    class       volScalarField;
    location    "0.02";
    object      F;
}
// * * * * * * * * * * * * * * * * * * * * * * * * * * * * * * * * * * * * * //

dimensions      [0 0 0 0 0 0 0];

internalField   nonuniform List<scalar> 
87227
(
1
1
1
1
1
1
1
1
1
1
1
1
1
1
1
1
1
1
1
0.565132
4.5352e-10
2.21069e-11
9.49736e-14
1.32221e-15
6.67534e-18
1.59571e-20
2.04543e-23
1.49733e-26
6.37682e-30
1.5346e-33
1.889e-37
8.99004e-42
1
1
1
1
1
1
1
1
1
1
1
1
1
1
1
1
1
1
1
0.562689
3.64534e-10
1.73754e-11
1.19645e-13
1.40058e-15
5.98552e-18
1.26517e-20
1.50919e-23
1.06822e-26
4.47591e-30
1.06355e-33
1.2922e-37
6.0665e-42
1
1
1
1
1
1
1
1
1
1
1
1
1
1
1
1
1
1
1
0.550748
3.0995e-10
1.39031e-11
1.10524e-13
1.1177e-15
4.24195e-18
8.30628e-21
9.46853e-24
6.48317e-27
2.63693e-30
6.0981e-34
7.22465e-38
3.31176e-42
1
1
1
1
1
1
1
1
1
1
1
1
1
1
1
1
1
1
1
0.528389
2.40577e-10
9.66883e-12
1.25368e-13
7.42528e-16
2.33527e-18
4.21762e-21
4.54873e-24
2.96549e-27
1.15395e-30
2.56223e-34
2.92243e-38
1.29232e-42
1
1
1
1
1
1
1
1
1
1
1
1
1
1
1
1
1
1
1
0.487914
1.4779e-10
4.97814e-12
5.57813e-14
2.93471e-16
8.38043e-19
1.39635e-21
1.40547e-24
8.62437e-28
3.1791e-31
6.72043e-35
7.32734e-39
3.10821e-43
1
1
1
1
1
1
1
1
1
1
1
1
1
1
1
1
1
1
1
0.400165
1.76695e-12
4.9456e-14
4.20847e-16
1.70354e-18
3.8034e-21
5.01342e-24
4.02455e-27
1.98072e-30
5.88092e-34
1.00533e-37
8.91087e-42
3.10195e-46
0.604423
0.606095
0.606019
0.605752
0.605354
0.604791
0.604012
0.60294
0.60148
0.599488
0.596762
0.592848
0.587634
0.580297
0.569755
0.553891
0.529362
0.487697
0.398938
0.00316889
2.30617e-14
6.37238e-16
5.14487e-18
2.04543e-20
4.66073e-23
6.51838e-26
5.76214e-29
3.23018e-32
1.12587e-35
2.32195e-39
2.54638e-43
1.12204e-47
2.41252e-09
1.05072e-12
5.07448e-14
5.03127e-14
5.02178e-14
5.00951e-14
4.99297e-14
4.96997e-14
4.93631e-14
4.8746e-14
3.36807e-16
4.54292e-09
4.36717e-09
4.09703e-09
3.74898e-09
2.882e-09
5.51018e-10
3.0883e-10
4.12299e-14
2.10734e-14
7.70255e-16
9.38658e-18
5.25097e-20
1.60422e-22
2.92119e-25
3.31321e-28
2.38264e-31
1.08446e-34
3.05728e-38
5.07701e-42
4.45995e-46
1.56439e-50
1.15464e-10
4.12648e-14
1.67759e-15
1.65985e-15
1.65204e-15
1.64149e-15
1.62708e-15
1.60695e-15
1.57813e-15
1.53284e-15
1.38093e-16
1.92673e-10
1.76422e-10
1.5707e-10
1.34713e-10
9.52307e-11
2.02035e-11
9.26611e-12
1.05924e-13
1.00381e-15
9.75965e-18
6.68822e-20
2.66821e-22
6.26589e-25
9.00035e-28
8.12135e-31
4.65539e-34
1.68794e-37
3.78324e-41
4.97829e-45
3.44823e-49
9.47099e-54
3.45216e-14
4.288e-16
2.35226e-17
2.32479e-17
2.30444e-17
2.27664e-17
2.23849e-17
2.1854e-17
2.1104e-17
1.99915e-17
4.12087e-18
2.60385e-14
2.63913e-14
2.63683e-14
2.63668e-14
2.65024e-14
7.36411e-14
8.32785e-14
9.39935e-16
7.10831e-18
4.99184e-20
2.53635e-22
7.86204e-25
1.45987e-27
1.66391e-30
1.19035e-33
5.39939e-37
1.54528e-40
2.72437e-44
2.8058e-48
1.51045e-52
3.19395e-57
6.35063e-16
2.43928e-18
1.74991e-19
1.72624e-19
1.70261e-19
1.67034e-19
1.62627e-19
1.56561e-19
1.48117e-19
1.35988e-19
4.49772e-20
4.77306e-16
4.08507e-16
3.51838e-16
3.02922e-16
2.55104e-16
5.7688e-16
2.90015e-16
2.9788e-18
2.06874e-20
1.43072e-22
6.21707e-25
1.56234e-27
2.30121e-30
2.06187e-33
1.15524e-36
4.0948e-40
9.13266e-44
1.24932e-47
9.91836e-52
4.0781e-56
6.50529e-61
5.5044e-18
8.31637e-21
7.61127e-22
7.4887e-22
7.34635e-22
7.15349e-22
6.8938e-22
6.54363e-22
6.06822e-22
5.40752e-22
1.49723e-21
3.23887e-18
1.62801e-18
1.1334e-18
7.80722e-19
5.35597e-19
1.03289e-18
3.46857e-19
3.35305e-21
2.49748e-23
2.932e-25
1.1753e-27
2.33017e-30
2.62397e-33
1.79672e-36
7.72366e-40
2.10449e-43
3.60317e-47
3.7659e-51
2.26551e-55
6.97478e-60
8.1989e-65
2.40567e-20
1.77955e-23
2.04527e-24
2.00634e-24
1.95785e-24
1.8931e-24
1.80784e-24
1.69667e-24
1.5531e-24
1.36863e-24
4.03954e-24
1.33218e-20
6.08064e-28
1.66691e-30
2.41438e-33
2.04525e-36
1.0659e-39
3.50116e-43
7.28451e-47
9.4816e-51
7.47282e-55
3.34952e-59
7.55976e-64
6.38088e-69
5.83506e-23
2.43282e-26
3.51284e-27
3.43587e-27
3.33722e-27
3.20774e-27
3.04135e-27
2.83128e-27
2.57128e-27
2.25487e-27
6.54705e-27
3.03484e-23
7.35508e-31
1.5141e-33
1.65878e-36
1.0696e-39
4.25804e-43
1.06755e-46
1.68729e-50
1.65404e-54
9.69517e-59
3.17788e-63
5.13362e-68
3.02013e-73
8.23174e-26
2.11908e-29
3.93382e-30
3.83756e-30
3.71346e-30
3.55352e-30
3.35254e-30
3.10547e-30
2.8088e-30
2.45956e-30
6.65234e-30
4.06345e-26
5.57252e-34
8.98047e-37
7.59388e-40
3.76234e-43
1.14649e-46
2.18715e-50
2.60592e-54
1.90041e-58
8.14272e-63
1.90812e-67
2.14398e-72
8.47608e-78
6.81593e-29
1.15439e-32
2.90522e-33
2.82797e-33
2.72928e-33
2.6045e-33
2.45091e-33
2.26608e-33
2.0486e-33
1.79727e-33
4.4007e-33
3.26439e-29
2.77089e-37
3.55659e-40
2.34499e-43
8.96103e-47
2.08654e-50
3.00826e-54
2.67062e-58
1.42491e-62
4.36563e-67
7.11123e-72
5.36032e-77
1.35178e-82
3.2195e-32
3.83985e-36
1.43338e-36
1.39269e-36
1.34195e-36
1.27924e-36
1.2037e-36
1.11456e-36
1.01124e-36
8.92878e-37
2.01091e-36
1.56225e-32
9.33652e-41
9.58305e-44
4.93609e-47
1.45193e-50
2.56645e-54
2.76494e-58
1.79932e-62
6.87306e-67
1.46449e-71
1.59958e-76
7.67869e-82
1.12518e-87
7.94163e-36
8.06777e-40
4.92569e-40
4.77637e-40
4.59852e-40
4.3856e-40
4.13618e-40
3.84916e-40
3.52261e-40
3.15143e-40
7.11586e-40
4.33196e-36
2.18233e-44
1.78115e-47
7.12605e-51
1.60024e-54
2.12206e-58
1.68086e-62
7.84874e-67
2.0883e-71
2.98566e-76
2.07599e-81
5.79235e-87
4.07616e-93
8.00332e-40
1.48836e-43
1.3403e-43
1.29625e-43
1.24731e-43
1.19136e-43
1.12854e-43
1.05936e-43
9.83968e-44
9.00885e-44
2.22449e-43
7.07442e-40
3.60683e-48
2.30268e-51
7.05333e-55
1.19174e-58
1.1657e-62
6.64642e-67
2.16762e-71
3.87717e-76
3.53203e-81
1.4296e-86
1.91373e-92
2.21295e-99
9.38136e-45
3.72414e-47
3.52176e-47
3.39783e-47
3.26918e-47
3.12981e-47
2.98247e-47
2.8331e-47
2.68906e-47
2.55488e-47
6.38312e-47
1.0734e-43
4.31026e-52
2.07598e-55
4.73913e-59
5.90904e-63
4.17471e-67
1.66914e-71
3.67211e-76
4.19531e-81
2.23125e-86
4.33482e-92
9.6636e-99
0
2.0675e-48
9.57956e-51
9.08925e-51
8.75918e-51
8.42986e-51
8.08911e-51
7.7527e-51
7.45285e-51
7.24376e-51
7.22091e-51
1.61331e-50
2.74783e-47
3.98258e-51
3.1749e-55
1.59679e-59
5.28109e-64
1.00674e-68
8.80734e-74
8.45556e-66
1.20458e-60
3.84604e-56
1.30624e-59
2.12743e-63
1.90311e-67
9.49454e-72
2.57645e-76
3.63706e-81
2.43732e-86
6.23483e-92
2.04571e-98
0
0
3.6578e-52
2.06554e-54
1.96703e-54
1.89307e-54
1.82039e-54
1.74704e-54
1.67751e-54
1.62021e-54
1.58815e-54
1.60031e-54
2.78049e-54
3.34136e-51
3.94359e-55
2.78474e-59
1.29635e-63
3.6647e-68
5.51286e-73
3.84606e-78
8.48178e-71
3.30006e-65
1.78767e-60
4.92533e-64
6.05088e-68
3.87248e-72
1.32776e-76
2.33097e-81
1.9439e-86
6.29001e-92
2.75888e-98
0
0
0
4.51568e-56
3.45428e-58
3.29695e-58
3.1644e-58
3.03331e-58
2.90058e-58
2.77333e-58
2.66356e-58
2.58599e-58
2.55164e-58
3.36251e-58
2.47053e-55
2.78804e-59
1.82649e-63
7.16793e-68
1.55569e-72
1.76096e-77
8.64317e-83
7.46015e-76
5.39214e-70
5.13294e-65
1.16973e-68
1.07944e-72
4.85639e-77
1.09213e-81
1.14456e-86
4.63666e-92
2.61561e-98
0
0
0
0
3.76568e-60
4.44203e-62
4.24095e-62
4.0526e-62
3.86174e-62
3.66376e-62
3.46565e-62
3.27739e-62
3.10569e-62
2.93925e-62
3.05378e-62
1.38224e-59
1.53901e-63
8.60045e-68
2.57043e-72
4.09649e-77
3.08279e-82
7.54762e-88
5.53716e-81
6.41868e-75
1.00598e-69
1.79808e-73
1.20237e-77
3.61432e-82
4.91795e-87
2.52396e-92
1.81567e-98
0
0
0
0
0
2.0126e-64
4.34036e-66
4.13671e-66
3.92869e-66
3.71106e-66
3.47891e-66
3.237e-66
2.99075e-66
2.73884e-66
2.45966e-66
2.15797e-66
6.39232e-64
6.3267e-68
2.72081e-72
5.93366e-77
6.16095e-82
2.20467e-87
3.90927e-94
3.0007e-86
5.56281e-80
1.35635e-74
1.7877e-78
8.10413e-83
1.49474e-87
1.00435e-92
9.3375e-99
0
0
0
0
0
0
6.28491e-69
3.17587e-70
3.01646e-70
2.84245e-70
2.65484e-70
2.45054e-70
2.23273e-70
2.0044e-70
1.76354e-70
1.4964e-70
1.17375e-70
2.30401e-68
1.79934e-72
5.68243e-77
8.03328e-82
3.89837e-87
9.71858e-94
1.25148e-99
1.05896e-91
3.23262e-85
1.23767e-79
1.10884e-83
3.10692e-88
2.84599e-93
3.53377e-99
0
0
0
0
0
0
0
9.59619e-74
1.70986e-74
1.6165e-74
1.50924e-74
1.39087e-74
1.26066e-74
1.12108e-74
9.74544e-75
8.21478e-75
6.58298e-75
4.75936e-75
5.95164e-73
3.45991e-77
7.10621e-82
4.67142e-87
1.55489e-93
2.7329e-99
0
1.8845e-97
1.1606e-90
7.28916e-85
4.02496e-89
5.59417e-94
9.64969e-100
0
0
0
0
0
0
0
0
6.47728e-79
6.62168e-79
6.22659e-79
5.75362e-79
5.22339e-79
4.63977e-79
4.01857e-79
3.37635e-79
2.72449e-79
2.06544e-79
1.39318e-79
1.06858e-77
4.06815e-82
3.88761e-87
1.74159e-93
4.03455e-99
0
0
7.05157e-104
2.05587e-96
2.57799e-90
7.01227e-95
1.8665e-100
0
0
0
0
0
0
0
0
0
1.52225e-83
1.78507e-83
1.66892e-83
1.52508e-83
1.36237e-83
1.18441e-83
9.97845e-84
8.09626e-84
6.25529e-84
4.49573e-84
2.84579e-84
1.20145e-82
2.13382e-87
1.38578e-93
4.29256e-99
0
0
0
0
7.50059e-103
4.44093e-96
2.36857e-101
0
0
0
0
0
0
0
0
0
0
2.57261e-88
3.17389e-88
2.94955e-88
2.66416e-88
2.34015e-88
1.98957e-88
1.62936e-88
1.27639e-88
9.44805e-89
6.45125e-89
3.85072e-89
6.16391e-88
7.42477e-94
3.31922e-99
0
0
0
0
0
0
1.56827e-102
0
0
0
0
0
0
0
0
0
0
0
2.71435e-93
3.35116e-93
3.09488e-93
2.7623e-93
2.38483e-93
1.98197e-93
1.57734e-93
1.19308e-93
8.46824e-94
5.50556e-94
3.11219e-94
2.14345e-94
1.76843e-99
0
0
0
0
0
0
0
0
0
0
0
0
0
0
0
0
0
0
0
1.29692e-98
1.59949e-98
1.46743e-98
1.294e-98
1.09786e-98
8.91721e-99
6.89588e-99
5.03718e-99
3.43056e-99
2.12674e-99
1.14098e-99
5.22101e-100
0
0
0
0
0
0
0
0
0
0
0
0
0
0
0
0
0
0
0
0
1
1
1
1
1
1
1
1
1
1
1
1
1
1
1
1
1
1
1
0.227177
1.54589e-10
5.41291e-12
6.90919e-14
4.27131e-16
1.42893e-18
2.75381e-21
3.16259e-24
2.1885e-27
9.01359e-31
2.11403e-34
2.54434e-38
1.18736e-42
1
1
1
1
1
1
1
1
1
1
1
1
1
1
1
1
1
1
1
0.222846
9.53035e-12
2.63778e-13
2.57834e-15
1.31195e-17
3.61352e-20
5.74154e-23
5.47561e-26
3.1698e-29
1.09833e-32
2.17731e-36
2.22535e-40
8.87611e-45
1
1
1
1
1
1
1
1
1
1
1
1
1
1
1
1
1
1
1
0.210179
7.30188e-12
1.88122e-13
1.75285e-15
8.39085e-18
2.18589e-20
3.32682e-23
3.06445e-26
1.72165e-29
5.81198e-33
1.1262e-36
1.12847e-40
4.42646e-45
1
1
1
1
1
1
1
1
1
1
1
1
1
1
1
1
1
1
1
0.187466
5.24923e-12
1.20361e-13
1.04219e-15
4.50158e-18
1.08809e-20
1.56028e-23
1.3651e-26
7.33018e-30
2.37694e-33
4.44274e-37
4.31078e-41
1.64429e-45
1
1
1
1
1
1
1
1
1
1
1
1
1
1
1
1
1
1
1
0.149803
2.7479e-12
5.27964e-14
3.993e-16
1.54932e-18
3.4312e-21
4.57232e-24
3.75656e-27
1.9095e-30
5.90004e-34
1.05707e-37
9.8925e-42
3.66714e-46
1
1
1
1
1
1
1
1
1
1
1
1
1
1
1
1
1
1
1
0.0864944
5.09243e-14
8.36863e-16
5.97157e-18
2.33868e-20
5.50902e-23
8.15049e-26
7.71218e-29
4.66539e-32
1.76877e-35
4.00379e-39
4.86909e-43
2.40762e-47
0.272806
0.273016
0.272835
0.272513
0.272039
0.271369
0.270445
0.26918
0.267456
0.265112
0.261915
0.25753
0.251477
0.243066
0.231161
0.214033
0.188718
0.149776
0.085925
4.93328e-07
2.18305e-14
4.37729e-16
3.0431e-18
1.10974e-20
2.37064e-23
3.11739e-26
2.58439e-29
1.352e-32
4.37051e-36
8.30531e-40
8.34081e-44
3.3475e-48
6.28747e-10
3.28055e-10
3.22891e-10
3.20569e-10
3.18531e-10
3.15971e-10
3.12607e-10
3.08103e-10
3.01973e-10
2.94126e-10
2.82758e-10
5.01901e-10
4.85552e-10
3.91164e-10
3.46559e-10
2.91001e-10
1.28011e-10
1.60364e-11
2.09666e-14
2.08752e-14
6.49402e-16
6.50414e-18
3.17682e-20
8.71867e-23
1.4403e-25
1.48842e-28
9.77171e-32
4.06168e-35
1.04477e-38
1.58057e-42
1.26274e-46
4.0217e-51
2.90781e-11
1.6292e-11
1.59901e-11
1.5829e-11
1.56696e-11
1.54639e-11
1.51639e-11
1.47959e-11
1.42976e-11
1.36174e-11
1.27006e-11
9.38103e-12
6.77029e-12
4.36223e-12
3.13768e-12
1.62587e-12
8.07064e-13
6.48322e-14
1.0647e-15
2.32971e-16
4.60321e-18
3.5068e-20
1.34652e-22
2.92818e-25
3.85041e-28
3.17047e-31
1.65718e-34
5.47678e-38
1.11835e-41
1.3401e-45
8.45028e-50
2.11296e-54
6.19144e-14
1.1381e-13
1.11268e-13
1.09688e-13
1.08032e-13
1.05886e-13
1.29001e-13
1.24215e-13
1.17737e-13
1.33796e-13
1.19552e-13
8.45538e-14
1.01341e-13
5.99988e-14
4.00028e-14
1.87914e-14
8.67529e-15
5.67661e-16
7.44052e-18
1.0545e-18
1.70243e-20
1.069e-22
3.33954e-25
5.85096e-28
6.15286e-31
4.02973e-34
1.6688e-37
4.35617e-41
7.00375e-45
6.58069e-49
3.23506e-53
6.25614e-58
1.35221e-15
2.10452e-15
2.05195e-15
2.01524e-15
1.97455e-15
1.9214e-15
2.13884e-15
2.02964e-15
1.88329e-15
1.88843e-15
1.59996e-15
1.11842e-15
7.15339e-16
3.75078e-16
2.23309e-16
9.27969e-17
3.65746e-17
1.77597e-18
2.00587e-20
2.49635e-21
4.10261e-23
2.24053e-25
5.73493e-28
8.01445e-31
6.64426e-34
3.41317e-37
1.10568e-40
2.25218e-44
2.81562e-48
2.04608e-52
7.71852e-57
1.13321e-61
1.30755e-17
1.59938e-17
1.555e-17
1.52093e-17
1.48182e-17
1.43084e-17
1.46596e-17
1.37095e-17
1.24615e-17
1.12992e-17
9.06391e-18
6.20374e-18
2.02755e-18
8.8243e-19
4.34746e-19
1.54055e-19
5.07432e-20
1.87436e-21
1.98013e-23
2.79969e-24
8.00134e-26
3.80133e-28
7.55669e-31
8.03943e-34
5.08818e-37
2.0057e-40
4.9998e-44
7.83467e-48
7.50883e-52
4.15462e-56
1.18109e-60
1.28912e-65
6.74378e-20
6.57783e-20
6.37761e-20
6.21266e-20
6.01985e-20
5.77094e-20
5.58836e-20
5.1658e-20
4.63318e-20
4.01506e-20
3.23696e-20
2.42573e-20
1.72684e-28
5.05514e-31
7.07283e-34
5.58547e-37
2.67793e-40
8.05797e-44
1.53573e-47
1.83503e-51
1.33241e-55
5.52797e-60
1.1621e-64
9.22571e-70
2.06086e-22
1.67329e-22
1.61836e-22
1.57073e-22
1.51465e-22
1.44325e-22
1.35908e-22
1.24599e-22
1.10844e-22
9.47874e-23
7.6532e-23
6.12253e-23
2.05974e-31
4.25338e-34
4.39369e-37
2.61591e-40
9.54984e-44
2.19389e-47
3.18455e-51
2.87876e-55
1.56439e-59
4.78715e-64
7.29439e-69
4.12305e-74
3.97651e-25
2.83833e-25
2.7398e-25
2.65114e-25
2.54672e-25
2.4157e-25
2.25317e-25
2.05534e-25
1.82077e-25
1.55377e-25
1.25584e-25
1.05249e-25
1.48391e-34
2.30924e-37
1.8148e-40
8.26009e-44
2.30725e-47
4.04294e-51
4.4441e-55
3.0078e-59
1.20514e-63
2.6695e-68
2.88871e-73
1.13941e-78
5.05158e-28
3.33761e-28
3.21752e-28
3.10658e-28
2.97641e-28
2.81552e-28
2.61948e-28
2.38523e-28
2.11208e-28
1.80483e-28
1.46298e-28
1.26731e-28
6.85307e-38
8.30427e-41
5.05096e-44
1.77126e-47
3.78965e-51
5.04258e-55
4.15769e-59
2.07697e-63
6.02518e-68
9.46935e-73
7.13345e-78
1.90443e-83
4.34947e-31
2.76553e-31
2.66433e-31
2.56913e-31
2.45822e-31
2.3233e-31
2.16181e-31
1.97192e-31
1.75291e-31
1.50707e-31
1.23041e-31
1.09274e-31
2.1137e-41
2.02348e-44
9.59386e-48
2.59579e-51
4.23741e-55
4.24314e-59
2.58812e-63
9.37372e-68
1.92997e-72
2.10943e-77
1.07287e-82
1.75288e-88
2.58926e-34
1.62284e-34
1.56342e-34
1.50689e-34
1.4417e-34
1.36388e-34
1.27268e-34
1.16748e-34
1.04757e-34
9.1265e-35
7.56697e-35
6.88275e-35
4.48667e-45
3.39949e-48
1.25448e-51
2.60509e-55
3.21435e-59
2.38916e-63
1.0592e-67
2.72682e-72
3.90542e-77
2.87866e-82
8.94084e-88
7.05978e-94
1.07742e-37
6.73421e-38
6.49067e-38
6.2572e-38
5.99165e-38
5.6822e-38
5.33022e-38
4.93718e-38
4.50159e-38
4.01662e-38
3.43433e-38
3.23832e-38
6.71506e-49
3.98405e-52
1.13185e-55
1.78253e-59
1.6386e-63
8.88322e-68
2.80692e-72
5.03453e-77
4.86392e-82
2.18768e-87
3.28099e-93
3.9748e-100
3.13268e-41
1.95933e-41
1.88976e-41
1.82266e-41
1.7475e-41
1.66248e-41
1.56987e-41
1.47253e-41
1.37311e-41
1.27251e-41
1.1532e-41
1.17598e-41
7.27763e-53
3.27563e-56
6.99517e-60
8.21497e-64
5.52839e-68
2.14475e-72
4.73631e-77
5.74075e-82
3.38693e-87
7.36004e-93
1.72884e-99
0
6.27346e-45
3.92816e-45
3.79083e-45
3.6571e-45
3.50909e-45
3.34663e-45
3.17845e-45
3.01694e-45
2.88062e-45
2.80194e-45
2.81778e-45
3.48421e-45
5.54416e-49
4.06291e-53
1.30503e-57
1.51048e-62
2.94718e-68
3.66241e-74
1.09809e-66
1.70026e-61
5.92024e-57
1.89644e-60
2.92188e-64
2.49687e-68
1.21088e-72
3.30211e-77
4.9474e-82
3.67146e-87
1.04881e-92
3.64621e-99
0
0
8.38844e-49
5.26547e-49
5.08181e-49
4.89965e-49
4.69841e-49
4.48135e-49
4.26355e-49
4.06521e-49
3.91417e-49
3.85058e-49
3.88154e-49
4.65166e-49
5.04913e-53
2.27881e-57
3.70891e-62
1.07274e-67
2.28784e-73
1.60865e-78
1.02553e-71
4.33619e-66
2.53439e-61
6.66174e-65
7.85273e-69
4.90122e-73
1.69122e-77
3.15276e-82
2.90651e-87
1.04857e-92
4.9005e-99
0
0
0
7.09813e-53
4.48119e-53
4.32184e-53
4.15898e-53
3.97694e-53
3.7801e-53
3.58158e-53
3.39646e-53
3.24071e-53
3.12632e-53
3.00274e-53
3.16453e-53
2.28436e-57
5.23232e-62
2.10048e-67
6.45911e-73
7.35759e-78
3.53277e-83
8.77672e-77
6.69402e-71
6.79407e-66
1.49813e-69
1.35345e-73
6.14682e-78
1.46886e-82
1.69871e-87
7.66018e-93
4.63142e-99
0
0
0
0
3.43595e-57
2.20041e-57
2.1188e-57
2.03192e-57
1.93267e-57
1.82354e-57
1.71041e-57
1.59854e-57
1.49088e-57
1.38336e-57
1.238e-57
1.13383e-57
4.41543e-62
2.52379e-67
1.06846e-72
1.71279e-77
1.25927e-82
2.98407e-88
6.55633e-82
7.74381e-76
1.26512e-70
2.23071e-74
1.50984e-78
4.83281e-83
7.2433e-88
4.13137e-93
3.20573e-99
0
0
0
0
0
7.51811e-62
5.03546e-62
4.83966e-62
4.61948e-62
4.36142e-62
4.07242e-62
3.7648e-62
3.44727e-62
3.1201e-62
2.76547e-62
2.30476e-62
1.83696e-62
1.85931e-67
1.13245e-72
2.48388e-77
2.51848e-82
8.71309e-88
1.03882e-94
3.75786e-87
6.75169e-81
1.65758e-75
2.2252e-79
1.07559e-83
2.18322e-88
1.62778e-93
1.64429e-99
0
0
0
0
0
0
2.45393e-67
2.45567e-67
2.37564e-67
2.2647e-67
2.12914e-67
1.97576e-67
1.81094e-67
1.63897e-67
1.45958e-67
1.2633e-67
1.02027e-67
6.7816e-68
7.49906e-73
2.38178e-77
3.28744e-82
1.54165e-87
2.58165e-94
3.54454e-100
1.42558e-92
4.15049e-86
1.52113e-80
1.45932e-84
4.48949e-89
4.56126e-94
6.20786e-100
0
0
0
0
0
0
0
1.48065e-72
1.48193e-72
1.41572e-72
1.32842e-72
1.2256e-72
1.1106e-72
9.86969e-73
8.57496e-73
7.23085e-73
5.81287e-73
4.2394e-73
2.48375e-73
1.45212e-77
2.91152e-82
1.8491e-87
4.13237e-94
7.73736e-100
0
2.73012e-98
1.60123e-91
9.47269e-86
5.73766e-90
8.83512e-95
1.69139e-100
0
0
0
0
0
0
0
0
3.88099e-77
3.91262e-77
3.71539e-77
3.44913e-77
3.13409e-77
2.78301e-77
2.40885e-77
2.02307e-77
1.63362e-77
1.24298e-77
8.46334e-78
4.49085e-78
1.66885e-82
1.54048e-87
4.63211e-94
1.14261e-99
0
0
1.17874e-104
3.05153e-97
3.5986e-91
1.08596e-95
3.26153e-101
0
0
0
0
0
0
0
0
0
6.13842e-82
6.1313e-82
5.78436e-82
5.30838e-82
4.74524e-82
4.12364e-82
3.4719e-82
2.8162e-82
2.17781e-82
1.57115e-82
1.00333e-82
4.93504e-83
8.46515e-88
3.68918e-94
1.21644e-99
0
0
0
0
1.28525e-103
6.66734e-97
4.12599e-102
0
0
0
0
0
0
0
0
0
0
4.35258e-87
4.29818e-87
4.02713e-87
3.65131e-87
3.20842e-87
2.72612e-87
2.23091e-87
1.74699e-87
1.29413e-87
8.86367e-88
5.32397e-88
2.44835e-88
1.97869e-94
9.41374e-100
0
0
0
0
0
0
2.71744e-103
0
0
0
0
0
0
0
0
0
0
0
1.60167e-93
1.58089e-93
1.45579e-93
1.29734e-93
1.11589e-93
9.22319e-94
7.28602e-94
5.45739e-94
3.82464e-94
2.4473e-94
1.35737e-94
5.71903e-95
5.02047e-100
0
0
0
0
0
0
0
0
0
0
0
0
0
0
0
0
0
0
0
5.71639e-99
5.6771e-99
5.18066e-99
4.55665e-99
3.85039e-99
3.11007e-99
2.38732e-99
1.72698e-99
1.16151e-99
7.08964e-100
3.73226e-100
1.48391e-100
0
0
0
0
0
0
0
0
0
0
0
0
0
0
0
0
0
0
0
0
1
1
1
1
1
1
1
1
1
1
1
1
1
1
1
1
1
1
1
0.139413
1.73464e-11
5.91466e-14
7.2903e-16
3.81464e-18
1.04269e-20
1.61827e-23
1.4832e-26
8.12833e-30
2.63139e-33
4.81486e-37
4.49141e-41
1.6201e-45
1
1
1
1
1
1
1
1
1
1
1
1
1
1
1
1
1
1
1
0.136223
1.7023e-13
2.91743e-15
2.16752e-17
8.62475e-20
2.01842e-22
2.94412e-25
2.76258e-28
1.68298e-31
6.56025e-35
1.561e-38
2.03787e-42
1.10212e-46
1
1
1
1
1
1
1
1
1
1
1
1
1
1
1
1
1
1
1
0.125618
1.07729e-13
1.89531e-15
1.37962e-17
5.38691e-20
1.25185e-22
1.83143e-25
1.73241e-28
1.06425e-31
4.16835e-35
9.90924e-39
1.28443e-42
6.85865e-47
1
1
1
1
1
1
1
1
1
1
1
1
1
1
1
1
1
1
1
0.107413
7.59503e-14
1.21166e-15
8.27753e-18
3.1005e-20
7.03397e-23
1.01482e-25
9.50748e-29
5.78305e-32
2.23563e-35
5.22217e-39
6.62051e-43
3.44355e-47
1
1
1
1
1
1
1
1
1
1
1
1
1
1
1
1
1
1
1
0.0795143
4.25089e-14
6.08443e-16
3.96009e-18
1.45896e-20
3.30594e-23
4.78358e-26
4.4807e-29
2.70615e-32
1.03034e-35
2.35217e-39
2.89529e-43
1.45448e-47
1
1
1
1
1
1
1
1
1
1
1
1
1
1
1
1
1
1
1
0.0404426
7.39354e-13
2.83447e-15
6.915e-18
1.33489e-20
2.28655e-23
3.07222e-26
2.81826e-29
1.6628e-32
6.1073e-36
1.32948e-39
1.54547e-43
7.27187e-48
0.18184
0.182321
0.182125
0.181814
0.181358
0.180713
0.179826
0.178616
0.176977
0.174754
0.171745
0.167658
0.162079
0.154406
0.143825
0.129115
0.108539
0.0794533
0.0400085
3.33214e-07
2.09251e-14
3.65373e-16
2.25182e-18
7.51598e-21
1.50499e-23
1.86137e-26
1.43525e-29
6.86969e-33
1.99614e-36
3.34838e-40
2.9133e-44
9.94108e-49
3.45777e-10
2.17211e-10
2.13396e-10
2.11457e-10
2.09547e-10
2.07142e-10
2.03953e-10
1.99493e-10
1.93264e-10
1.85006e-10
1.73843e-10
1.55839e-10
1.38561e-10
1.17967e-10
9.3721e-11
1.40887e-11
7.52199e-12
4.37372e-12
2.69309e-14
2.22724e-14
8.38786e-16
6.91473e-18
2.71569e-20
6.2077e-23
8.85234e-26
8.06341e-29
4.7033e-32
1.73462e-35
3.92799e-39
5.16625e-43
3.53414e-47
9.49342e-52
4.14603e-12
2.80713e-12
2.72405e-12
2.67245e-12
2.61839e-12
2.55119e-12
2.4651e-12
2.35599e-12
2.19751e-12
2.0018e-12
1.75658e-12
1.37568e-12
1.08691e-12
7.81964e-13
5.11837e-13
3.73501e-14
2.72502e-14
2.49098e-14
3.48375e-16
3.21132e-16
5.51851e-18
3.31687e-20
1.01422e-22
1.81689e-25
2.03002e-28
1.45061e-31
6.64807e-35
1.92775e-38
3.43035e-42
3.54063e-46
1.89827e-50
3.99622e-55
7.40248e-14
5.00513e-14
4.8544e-14
4.74925e-14
4.63552e-14
4.49246e-14
4.32042e-14
4.07743e-14
3.73976e-14
3.33199e-14
2.81434e-14
2.1493e-14
1.5265e-14
1.0125e-14
6.14359e-15
4.10707e-16
2.17312e-16
7.37302e-17
1.40549e-18
1.25748e-18
1.66386e-20
8.23642e-23
2.06804e-25
3.00174e-28
2.68752e-31
1.52633e-34
5.52423e-38
1.2583e-41
1.75102e-45
1.4087e-49
5.87859e-54
9.64679e-59
7.20461e-16
4.8741e-16
4.71992e-16
4.60174e-16
4.46971e-16
4.30226e-16
4.09399e-16
3.80853e-16
3.42178e-16
2.94848e-16
2.36224e-16
1.67745e-16
9.43901e-17
5.46294e-17
2.92662e-17
1.54886e-18
6.03837e-19
1.08171e-19
2.8088e-21
2.34301e-21
3.15293e-23
1.37427e-25
2.86641e-28
3.35747e-31
2.38868e-34
1.06765e-37
3.01932e-41
5.34387e-45
5.75521e-49
3.57635e-53
1.15374e-57
1.46929e-62
4.16396e-18
2.8128e-18
2.71836e-18
2.64022e-18
2.5507e-18
2.43704e-18
2.29248e-18
2.10257e-18
1.85176e-18
1.54629e-18
1.17295e-18
7.65286e-19
2.31865e-19
1.09096e-19
4.77908e-20
1.91024e-21
5.5968e-22
6.18191e-23
2.3847e-24
2.01234e-24
4.82889e-26
1.85443e-28
3.05084e-31
2.75816e-34
1.5115e-37
5.20005e-41
1.12985e-44
1.53332e-48
1.26491e-52
6.02693e-57
1.49599e-61
1.47077e-66
1.5141e-20
1.02162e-20
9.85262e-21
9.53331e-21
9.1617e-21
8.69248e-21
8.09829e-21
7.34396e-21
6.38539e-21
5.26987e-21
4.01977e-21
2.68739e-21
8.26859e-29
1.98647e-31
2.3401e-34
1.59041e-37
6.64169e-41
1.74454e-44
2.89084e-48
2.98922e-52
1.8802e-56
6.84952e-61
1.3031e-65
9.77743e-71
3.60386e-23
2.43333e-23
2.34222e-23
2.25856e-23
2.16042e-23
2.03768e-23
1.88466e-23
1.69541e-23
1.46267e-23
1.2008e-23
9.17785e-24
6.19769e-24
7.89993e-32
1.36748e-34
1.20994e-37
6.25912e-41
1.99516e-44
3.99528e-48
5.03908e-52
3.9648e-56
1.90061e-60
5.28327e-65
7.62913e-70
4.27059e-75
5.76944e-26
3.90655e-26
3.75434e-26
3.60997e-26
3.44023e-26
3.23034e-26
2.97302e-26
2.66127e-26
2.2868e-26
1.87377e-26
1.43427e-26
9.73644e-27
4.63266e-35
6.17573e-38
4.21368e-41
1.67534e-44
4.08715e-48
6.24277e-52
5.99562e-56
3.59292e-60
1.31161e-64
2.75873e-69
2.96022e-74
1.19713e-79
6.32498e-29
4.30355e-29
4.1312e-29
3.96403e-29
3.76777e-29
3.52801e-29
3.23861e-29
2.89367e-29
2.48556e-29
2.03948e-29
1.56615e-29
1.06784e-29
1.77291e-38
1.87348e-41
9.9779e-45
3.06375e-48
5.73128e-52
6.68553e-56
4.89612e-60
2.2338e-64
6.16188e-69
9.60988e-74
7.42671e-79
2.05987e-84
4.79989e-32
3.2886e-32
3.15497e-32
3.02338e-32
2.86964e-32
2.68428e-32
2.46394e-32
2.20491e-32
1.9012e-32
1.56944e-32
1.21426e-32
8.33575e-33
4.60306e-42
3.89086e-45
1.62281e-48
3.85374e-52
5.5342e-56
4.93678e-60
2.7559e-64
9.50151e-69
1.94196e-73
2.17778e-78
1.15145e-83
1.98841e-89
2.5339e-35
1.75264e-35
1.68126e-35
1.6103e-35
1.52801e-35
1.43033e-35
1.31626e-35
1.18421e-35
1.03056e-35
8.62009e-36
6.77616e-36
4.71967e-36
8.32748e-46
5.61353e-49
1.82922e-52
3.35614e-56
3.70078e-60
2.52264e-64
1.06559e-68
2.72357e-73
4.00171e-78
3.06694e-83
1.00779e-88
8.70818e-95
9.30616e-39
6.52183e-39
6.25848e-39
5.99495e-39
5.69226e-39
5.33989e-39
4.93831e-39
4.48466e-39
3.9656e-39
3.39769e-39
2.75696e-39
1.98612e-39
1.07253e-49
5.69303e-53
1.43845e-56
2.03263e-60
1.71749e-64
8.87964e-69
2.78578e-73
5.12432e-78
5.14719e-83
2.4507e-88
4.02908e-94
7.34872e-101
2.36893e-42
1.6912e-42
1.62406e-42
1.55638e-42
1.47941e-42
1.39187e-42
1.29546e-42
1.1912e-42
1.07763e-42
9.59707e-43
8.27053e-43
6.46807e-43
1.00956e-53
4.09632e-57
7.89994e-61
8.55269e-65
5.49529e-69
2.11682e-73
4.79226e-78
6.03779e-83
3.77195e-88
8.99737e-94
3.17962e-100
0
4.15297e-46
3.04454e-46
2.92631e-46
2.80564e-46
2.66919e-46
2.51756e-46
2.35704e-46
2.19418e-46
2.03511e-46
1.90629e-46
1.83044e-46
1.75281e-46
2.68203e-50
2.07757e-54
8.23077e-59
1.51323e-63
9.3613e-69
9.12567e-75
1.0655e-67
1.84358e-62
7.2187e-58
2.11487e-61
3.01992e-65
2.46928e-69
1.18925e-73
3.32337e-78
5.17414e-83
4.06637e-88
1.27648e-93
6.67206e-100
0
0
4.97262e-50
3.78452e-50
3.64121e-50
3.49135e-50
3.32134e-50
3.13505e-50
2.94311e-50
2.75652e-50
2.58594e-50
2.46078e-50
2.38576e-50
2.25029e-50
2.58426e-54
1.4389e-58
3.72048e-63
3.40717e-68
5.67727e-74
3.98897e-79
9.11821e-73
4.32054e-67
2.77471e-62
6.82361e-66
7.7175e-70
4.79215e-74
1.69386e-78
3.2801e-83
3.20252e-88
1.27079e-93
8.92453e-100
0
0
0
4.01498e-54
3.21225e-54
3.09379e-54
2.96472e-54
2.81618e-54
2.65341e-54
2.48628e-54
2.32371e-54
2.17197e-54
2.0424e-54
1.90815e-54
1.62083e-54
1.44468e-58
5.26016e-63
6.68617e-68
1.60464e-73
1.82051e-78
8.58768e-84
7.76226e-78
6.31168e-72
6.87799e-67
1.46313e-70
1.31589e-74
6.12877e-79
1.52072e-83
1.86253e-88
9.24624e-94
8.39729e-100
0
0
0
0
2.11748e-58
1.79943e-58
1.73472e-58
1.65981e-58
1.57167e-58
1.474e-58
1.37218e-58
1.27027e-58
1.16947e-58
1.06871e-58
9.43469e-59
7.1804e-59
4.44863e-63
8.05511e-68
2.66104e-73
4.24441e-78
3.05702e-83
7.07389e-89
5.91185e-83
7.24101e-77
1.22729e-71
2.15781e-75
1.4967e-79
4.98009e-84
7.90422e-89
4.96765e-94
5.78888e-100
0
0
0
0
0
6.61555e-63
6.01218e-63
5.8006e-63
5.53509e-63
5.21511e-63
4.85519e-63
4.47227e-63
4.07756e-63
3.67068e-63
3.23522e-63
2.69029e-63
1.85434e-63
5.94973e-68
2.8281e-73
6.17019e-78
6.12269e-83
2.06348e-88
1.28125e-95
3.48751e-88
6.42995e-82
1.59429e-76
2.19381e-80
1.10148e-84
2.37123e-89
1.95004e-94
2.95842e-100
0
0
0
0
0
0
9.0939e-68
9.05267e-68
8.74467e-68
8.31355e-68
7.78165e-68
7.17579e-68
6.5214e-68
5.8359e-68
5.12011e-68
4.34505e-68
3.41699e-68
2.17537e-68
1.87773e-73
5.9318e-78
8.00921e-83
3.65521e-88
3.18117e-95
4.31534e-101
1.38913e-93
4.06965e-87
1.48877e-81
1.48457e-85
4.84384e-90
5.44389e-95
1.11332e-100
0
0
0
0
0
0
0
4.31595e-73
4.28854e-73
4.1033e-73
3.84292e-73
3.52925e-73
3.17594e-73
2.79566e-73
2.39863e-73
1.98987e-73
1.56636e-73
1.11393e-73
6.23502e-74
3.62574e-78
7.10973e-83
4.39191e-88
5.09591e-95
9.40997e-101
0
2.92575e-99
1.64682e-92
9.53684e-87
6.14065e-91
1.04836e-95
3.02455e-101
0
0
0
0
0
0
0
0
1.10785e-77
1.10845e-77
1.05418e-77
9.76846e-78
8.83577e-78
7.79151e-78
6.68007e-78
5.54064e-78
4.40265e-78
3.2825e-78
2.18278e-78
1.12416e-78
4.08494e-83
3.66622e-88
5.72004e-95
1.39016e-100
0
0
1.91172e-105
3.4496e-98
3.7966e-92
1.27842e-96
5.80698e-102
0
0
0
0
0
0
0
0
0
1.70422e-82
1.69637e-82
1.60248e-82
1.46798e-82
1.30629e-82
1.12726e-82
9.4009e-83
7.53115e-83
5.73222e-83
4.05489e-83
2.5322e-83
1.21097e-83
2.01905e-88
4.56344e-95
1.48151e-100
0
0
0
0
2.20239e-104
7.72667e-98
7.30944e-103
0
0
0
0
0
0
0
0
0
0
1.16264e-87
1.15365e-87
1.082e-87
9.79294e-88
8.56629e-88
7.22806e-88
5.85923e-88
4.53212e-88
3.30555e-88
2.22187e-88
1.30712e-88
5.85354e-89
2.45248e-95
1.14818e-100
0
0
0
0
0
0
4.77135e-104
0
0
0
0
0
0
0
0
0
0
0
1.4063e-94
2.29731e-94
2.11627e-94
1.87938e-94
1.60668e-94
1.31654e-94
1.02816e-94
7.58813e-95
5.21969e-95
3.2641e-95
1.75946e-95
7.10454e-96
6.13464e-101
0
0
0
0
0
0
0
0
0
0
0
0
0
0
0
0
0
0
0
4.83743e-100
8.16785e-100
7.45271e-100
6.52944e-100
5.4824e-100
4.38963e-100
3.33093e-100
2.37422e-100
1.56733e-100
9.34701e-101
4.77733e-101
1.81715e-101
0
0
0
0
0
0
0
0
0
0
0
0
0
0
0
0
0
0
0
0
1
1
1
1
1
1
1
1
1
1
1
1
1
1
1
1
1
1
1
0.0931014
1.20008e-11
2.5564e-14
2.04057e-16
7.37854e-19
1.46732e-21
1.72189e-24
1.22608e-27
5.31809e-31
1.38235e-34
2.06709e-38
1.63199e-42
5.37702e-47
1
1
1
1
1
1
1
1
1
1
1
1
1
1
1
1
1
1
1
0.0911397
3.39464e-14
4.10348e-16
2.80461e-18
1.13166e-20
2.82167e-23
4.46083e-26
4.51653e-29
2.91671e-32
1.17616e-35
2.82178e-39
3.62826e-43
1.89536e-47
1
1
1
1
1
1
1
1
1
1
1
1
1
1
1
1
1
1
1
0.0827335
1.77777e-14
2.78571e-16
2.03677e-18
8.3812e-21
2.08872e-23
3.26513e-26
3.24935e-29
2.05586e-32
8.10947e-36
1.90192e-39
2.39013e-43
1.22026e-47
1
1
1
1
1
1
1
1
1
1
1
1
1
1
1
1
1
1
1
0.0688531
1.70363e-14
2.41264e-16
1.62639e-18
6.26145e-21
1.47466e-23
2.19384e-26
2.0883e-29
1.2685e-32
4.81672e-36
1.08954e-39
1.32229e-43
6.52437e-48
1
1
1
1
1
1
1
1
1
1
1
1
1
1
1
1
1
1
1
0.0489327
2.53032e-14
3.21336e-16
1.96778e-18
6.95887e-21
1.51576e-23
2.09417e-26
1.85571e-29
1.05056e-32
3.7186e-36
7.83613e-40
8.84819e-44
4.05455e-48
1
1
1
1
1
1
1
1
1
1
1
1
1
1
1
1
1
1
1
0.0241213
5.54717e-13
7.93342e-16
1.61769e-18
4.7677e-21
9.83204e-24
1.28999e-26
1.08717e-29
5.85768e-33
1.97354e-36
3.95706e-40
4.2487e-44
1.85015e-48
0.130984
0.132012
0.131827
0.131534
0.131103
0.130496
0.129664
0.128535
0.127012
0.124969
0.122223
0.118522
0.113541
0.106843
0.0978533
0.0858227
0.0698239
0.0488738
0.0237467
3.73328e-07
2.22977e-14
3.75387e-16
2.08109e-18
5.88118e-21
9.45897e-24
9.13468e-27
5.43385e-30
2.00233e-33
4.50605e-37
5.9366e-41
4.1522e-45
1.17789e-49
1.81747e-10
1.08528e-10
1.06366e-10
1.05088e-10
1.03668e-10
1.01788e-10
9.9342e-11
9.61762e-11
9.21743e-11
8.66299e-11
7.9129e-11
1.36276e-11
1.16223e-11
9.82874e-12
7.35519e-12
7.80532e-12
4.63217e-12
2.86161e-12
3.62532e-14
1.10684e-14
2.49594e-16
2.42289e-18
1.04389e-20
2.3515e-23
3.03809e-26
2.36741e-29
1.1407e-32
3.41831e-36
6.28475e-40
6.80383e-44
3.93748e-48
9.30248e-53
1.13913e-12
7.95819e-13
7.73487e-13
7.57372e-13
7.38554e-13
7.13666e-13
6.8187e-13
6.41453e-13