/*--------------------------------*- C++ -*----------------------------------*\
| =========                 |                                                 |
| \\      /  F ield         | OpenFOAM: The Open Source CFD Toolbox           |
|  \\    /   O peration     | Version:  2.3.0                                 |
|   \\  /    A nd           | Web:      www.OpenFOAM.org                      |
|    \\/     M anipulation  |                                                 |
\*---------------------------------------------------------------------------*/
FoamFile
{
    version     2.0;
    format      ascii;
    class       volScalarField;
    location    "0.02";
    object      F;
}
// * * * * * * * * * * * * * * * * * * * * * * * * * * * * * * * * * * * * * //

dimensions      [0 0 0 0 0 0 0];

internalField   nonuniform List<scalar> 
32256
(
-4.52583e-07
-6.0355e-07
-6.03535e-07
-6.03518e-07
-6.03495e-07
-6.03466e-07
-6.03427e-07
-6.03373e-07
-6.033e-07
-6.03197e-07
-6.03053e-07
-6.02847e-07
-6.0255e-07
-6.02113e-07
-6.01456e-07
-6.00436e-07
-5.98795e-07
-5.96002e-07
-1.2039e-06
-7.79904e-05
-0.000513455
-0.000590964
-0.0005959
-0.000598964
-0.000600798
-0.000601975
-0.000602788
-0.000603384
-0.000603847
-0.000604226
-0.000604549
-0.000453579
-6.02229e-07
-7.52821e-07
-7.52806e-07
-7.52789e-07
-7.52769e-07
-7.52742e-07
-7.52708e-07
-7.5266e-07
-7.52595e-07
-7.52503e-07
-7.52373e-07
-7.52184e-07
-7.51907e-07
-7.51491e-07
-7.50845e-07
-7.49802e-07
-7.48046e-07
-7.44943e-07
-1.3644e-06
-7.94319e-05
-0.000658962
-0.000738158
-0.000744572
-0.000748496
-0.000750841
-0.000752346
-0.000753384
-0.000754144
-0.000754732
-0.000755212
-0.000755618
-0.000604732
-6.00459e-07
-7.50619e-07
-7.50609e-07
-7.50599e-07
-7.50588e-07
-7.50575e-07
-7.50558e-07
-7.50535e-07
-7.50503e-07
-7.50457e-07
-7.50391e-07
-7.5029e-07
-7.50136e-07
-7.49889e-07
-7.49477e-07
-7.48753e-07
-7.47422e-07
-7.44862e-07
-1.39441e-06
-7.97371e-05
-0.000658632
-0.000737875
-0.000744433
-0.00074841
-0.000750765
-0.000752268
-0.000753302
-0.00075406
-0.000754646
-0.000755123
-0.000755525
-0.000604653
-5.98183e-07
-7.47787e-07
-7.47782e-07
-7.4778e-07
-7.47779e-07
-7.47779e-07
-7.4778e-07
-7.47783e-07
-7.47786e-07
-7.47789e-07
-7.4779e-07
-7.47784e-07
-7.47765e-07
-7.4771e-07
-7.47576e-07
-7.47254e-07
-7.46501e-07
-7.44757e-07
-1.45582e-06
-8.04952e-05
-0.000658891
-0.00073813
-0.00074473
-0.000748623
-0.000750879
-0.000752311
-0.000753298
-0.000754027
-0.000754594
-0.000755056
-0.000755446
-0.000604582
-5.94899e-07
-7.43722e-07
-7.43723e-07
-7.43728e-07
-7.43737e-07
-7.4375e-07
-7.43769e-07
-7.43796e-07
-7.43833e-07
-7.43883e-07
-7.4395e-07
-7.4404e-07
-7.44158e-07
-7.44309e-07
-7.44487e-07
-7.44659e-07
-7.44697e-07
-7.44235e-07
-1.59367e-06
-8.3682e-05
-0.000661178
-0.00073971
-0.000745745
-0.000749213
-0.000751196
-0.00075247
-0.000753367
-0.000754042
-0.000754575
-0.000755014
-0.000755385
-0.00060452
-1.13955e-06
-1.28708e-06
-1.28734e-06
-1.28775e-06
-1.28836e-06
-1.28924e-06
-1.29046e-06
-1.29217e-06
-1.29454e-06
-1.29785e-06
-1.30251e-06
-1.30913e-06
-1.31871e-06
-1.33289e-06
-1.3547e-06
-1.39026e-06
-1.45491e-06
-1.59483e-06
-5.616e-06
-0.000158848
-0.000669889
-0.000744613
-0.000747953
-0.000750197
-0.000751673
-0.000752712
-0.000753487
-0.000754093
-0.000754583
-0.000754992
-0.000755339
-0.000604469
-7.72257e-05
-7.84679e-05
-7.84641e-05
-7.84621e-05
-7.84624e-05
-7.84656e-05
-7.84725e-05
-7.84843e-05
-7.85027e-05
-7.85298e-05
-7.8569e-05
-7.8625e-05
-7.87063e-05
-7.88284e-05
-7.90367e-05
-7.9421e-05
-8.0219e-05
-8.3455e-05
-0.000164345
-0.000509561
-0.00072761
-0.000747831
-0.000749662
-0.00075107
-0.00075214
-0.00075297
-0.00075363
-0.000754166
-0.000754611
-0.000754987
-0.000755308
-0.000604429
-0.000512078
-0.000657741
-0.000657684
-0.000657627
-0.000657572
-0.000657518
-0.000657465
-0.000657413
-0.000657357
-0.000657294
-0.000657213
-0.000657098
-0.000656924
-0.000656655
-0.000656375
-0.000656214
-0.000656524
-0.000658981
-0.000668049
-0.000726615
-0.000747652
-0.000749378
-0.000750655
-0.000751679
-0.000752515
-0.000753203
-0.000753773
-0.000754249
-0.000754651
-0.000754995
-0.00075529
-0.000604399
-0.000589062
-0.000736258
-0.000736196
-0.000736136
-0.000736082
-0.000736036
-0.000735999
-0.000735976
-0.000735971
-0.000735989
-0.000736033
-0.000736093
-0.000736139
-0.000735949
-0.000735713
-0.000735604
-0.000735928
-0.000737656
-0.000742983
-0.000746652
-0.000748772
-0.000750153
-0.000751212
-0.000752078
-0.000752798
-0.000753401
-0.000753908
-0.000754336
-0.000754701
-0.000755015
-0.000755284
-0.000604377
-0.000593688
-0.000742133
-0.000742077
-0.000742027
-0.000741987
-0.00074196
-0.000741953
-0.000741976
-0.000742045
-0.000742182
-0.00074242
-0.000742784
-0.000743299
-0.00074318
-0.000742966
-0.000742871
-0.000743138
-0.000744151
-0.000746428
-0.0007482
-0.000749346
-0.00075052
-0.000751524
-0.000752348
-0.000753021
-0.000753576
-0.000754038
-0.000754428
-0.000754759
-0.000755044
-0.000755288
-0.000604365
-0.000596626
-0.000745799
-0.000745751
-0.000745709
-0.000745681
-0.00074567
-0.000745685
-0.000745741
-0.000745864
-0.0007461
-0.000746467
-0.000747021
-0.000748506
-0.000748418
-0.000747987
-0.000747671
-0.000747618
-0.000747947
-0.000748646
-0.00074912
-0.000749217
-0.000750576
-0.000751717
-0.000752572
-0.000753229
-0.000753749
-0.000754173
-0.000754527
-0.000754827
-0.000755084
-0.000755303
-0.00060436
-0.000598438
-0.000748055
-0.000748012
-0.000747977
-0.000747955
-0.000747953
-0.000747977
-0.000748044
-0.00074818
-0.000748383
-0.000748346
-0.000748373
-0.00060107
-0.000601612
-0.00060101
-0.000600461
-0.000600133
-0.000599999
-0.000599944
-0.000599561
-0.000748685
-0.000750509
-0.000751955
-0.000752847
-0.000753468
-0.000753941
-0.000754322
-0.000754637
-0.000754904
-0.000755133
-0.000755327
-0.000604364
-0.000599648
-0.000749562
-0.000749523
-0.000749492
-0.000749473
-0.00074947
-0.000749491
-0.000749542
-0.000749629
-0.000749746
-0.000749778
-0.000599673
-0.00060104
-0.00075202
-0.000752707
-0.000753297
-0.000753776
-0.000754165
-0.000754487
-0.000754759
-0.000754991
-0.000755191
-0.00075536
-0.000604375
-0.000600515
-0.000750643
-0.000750607
-0.000750576
-0.000750556
-0.00075055
-0.00075056
-0.000750591
-0.000750642
-0.000750705
-0.000750748
-0.00060057
-0.000602377
-0.000753127
-0.000753425
-0.000753774
-0.000754107
-0.000754404
-0.000754664
-0.00075489
-0.000755086
-0.000755257
-0.000755401
-0.000604393
-0.00060117
-0.00075146
-0.000751425
-0.000751393
-0.000751369
-0.000751356
-0.000751354
-0.000751366
-0.000751393
-0.000751429
-0.000751466
-0.000601171
-0.000603082
-0.000753876
-0.000754002
-0.000754202
-0.000754424
-0.000754641
-0.000754842
-0.000755023
-0.000755185
-0.000755327
-0.000755449
-0.000604417
-0.000601684
-0.000752101
-0.000752065
-0.000752031
-0.000752003
-0.000751981
-0.000751966
-0.000751961
-0.000751966
-0.000751982
-0.000752009
-0.000601613
-0.000603521
-0.000754393
-0.000754446
-0.000754561
-0.000754706
-0.00075486
-0.000755012
-0.000755154
-0.000755284
-0.000755401
-0.000755501
-0.000604445
-0.0006021
-0.000752619
-0.000752582
-0.000752545
-0.000752511
-0.000752479
-0.000752451
-0.000752427
-0.000752408
-0.000752401
-0.000752412
-0.000601935
-0.000603815
-0.000754762
-0.000754785
-0.000754853
-0.000754948
-0.000755056
-0.000755169
-0.000755278
-0.000755381
-0.000755475
-0.000755555
-0.000604477
-0.000602444
-0.000753047
-0.000753009
-0.000752969
-0.000752928
-0.000752887
-0.000752844
-0.000752799
-0.000752752
-0.00075271
-0.000752689
-0.000602144
-0.000604022
-0.000755034
-0.000755049
-0.00075509
-0.000755153
-0.000755228
-0.00075531
-0.000755392
-0.000755472
-0.000755546
-0.00075561
-0.000604511
-0.000602734
-0.000753407
-0.000753368
-0.000753325
-0.00075328
-0.00075323
-0.000753172
-0.000753104
-0.00075302
-0.000752925
-0.000752835
-0.000602216
-0.00060417
-0.000755244
-0.00075526
-0.000755286
-0.000755325
-0.000755377
-0.000755435
-0.000755496
-0.000755557
-0.000755615
-0.000755665
-0.000604547
-0.000602981
-0.000753715
-0.000753676
-0.000753631
-0.000753582
-0.000753526
-0.000753458
-0.000753368
-0.000753244
-0.000753069
-0.000752832
-0.00060203
-0.000604257
-0.000755405
-0.000755438
-0.000755452
-0.000755472
-0.000755504
-0.000755544
-0.000755588
-0.000755634
-0.000755679
-0.000755717
-0.000604582
-0.000603195
-0.000753982
-0.000753943
-0.000753898
-0.000753849
-0.000753792
-0.000753719
-0.00075362
-0.00075347
-0.000753213
-0.000752709
-0.000752141
-0.000602939
-0.000603734
-0.000604171
-0.000604462
-0.000604678
-0.000604846
-0.000604913
-0.000604742
-0.000755408
-0.000755495
-0.000755578
-0.000755592
-0.000755596
-0.000755612
-0.000755638
-0.00075567
-0.000755704
-0.000755737
-0.000755766
-0.000604616
-0.00060338
-0.000754214
-0.000754177
-0.000754135
-0.000754089
-0.000754036
-0.00075397
-0.000753885
-0.000753767
-0.000753601
-0.000753374
-0.000753184
-0.000754045
-0.000754699
-0.000755161
-0.000755497
-0.00075575
-0.000755945
-0.000756065
-0.000755989
-0.000755705
-0.000755698
-0.000755709
-0.0007557
-0.000755694
-0.000755701
-0.000755717
-0.00075574
-0.000755765
-0.000755791
-0.000755812
-0.000604648
-0.000603542
-0.000754418
-0.000754384
-0.000754346
-0.000754306
-0.000754261
-0.000754209
-0.000754147
-0.000754075
-0.000753995
-0.000753935
-0.000753974
-0.000754387
-0.000754807
-0.000755161
-0.000755442
-0.000755662
-0.000755827
-0.000755938
-0.000755964
-0.000755874
-0.000755827
-0.000755797
-0.000755776
-0.000755768
-0.000755772
-0.000755783
-0.000755799
-0.000755818
-0.000755838
-0.000755854
-0.000604678
-0.000603682
-0.000754596
-0.000754566
-0.000754534
-0.000754501
-0.000754467
-0.00075443
-0.000754393
-0.000754357
-0.000754334
-0.000754346
-0.000754438
-0.000754676
-0.000754952
-0.000755213
-0.000755436
-0.000755618
-0.000755757
-0.000755853
-0.000755899
-0.000755884
-0.000755861
-0.000755841
-0.000755829
-0.000755825
-0.000755828
-0.000755837
-0.00075585
-0.000755864
-0.00075588
-0.000755892
-0.000604706
-0.000603804
-0.000754752
-0.000754726
-0.0007547
-0.000754675
-0.000754651
-0.000754629
-0.000754611
-0.000754602
-0.00075461
-0.00075465
-0.000754744
-0.000754904
-0.000755096
-0.000755288
-0.000755462
-0.000755609
-0.000755725
-0.000755809
-0.000755858
-0.000755873
-0.000755873
-0.00075587
-0.000755867
-0.000755868
-0.000755873
-0.000755881
-0.000755892
-0.000755904
-0.000755916
-0.000755925
-0.000604731
-0.000603909
-0.000754886
-0.000754866
-0.000754846
-0.000754828
-0.000754814
-0.000754804
-0.000754801
-0.000754808
-0.000754832
-0.000754882
-0.000754965
-0.000755084
-0.000755224
-0.000755369
-0.000755504
-0.000755623
-0.00075572
-0.000755794
-0.000755843
-0.00075587
-0.000755884
-0.000755892
-0.000755897
-0.000755903
-0.00075591
-0.000755918
-0.000755927
-0.000755937
-0.000755947
-0.000755954
-0.000604752
-0.000603998
-0.000755001
-0.000754986
-0.000754971
-0.000754961
-0.000754955
-0.000754955
-0.000754962
-0.000754979
-0.000755011
-0.000755062
-0.000755134
-0.000755228
-0.000755336
-0.000755448
-0.000755555
-0.000755651
-0.000755733
-0.000755797
-0.000755845
-0.000755877
-0.000755898
-0.000755912
-0.000755922
-0.000755931
-0.000755939
-0.000755948
-0.000755957
-0.000755966
-0.000755974
-0.000755979
-0.000604771
-0.000604071
-0.000755097
-0.000755087
-0.000755078
-0.000755074
-0.000755075
-0.000755082
-0.000755097
-0.000755121
-0.000755156
-0.000755205
-0.000755269
-0.000755347
-0.000755433
-0.000755522
-0.000755608
-0.000755687
-0.000755756
-0.000755812
-0.000755857
-0.000755889
-0.000755913
-0.000755931
-0.000755944
-0.000755955
-0.000755964
-0.000755973
-0.000755981
-0.000755989
-0.000755997
-0.000756
-0.000604788
-0.000604131
-0.000755175
-0.00075517
-0.000755167
-0.000755169
-0.000755176
-0.000755189
-0.000755209
-0.000755237
-0.000755274
-0.000755322
-0.000755379
-0.000755445
-0.000755517
-0.00075559
-0.000755661
-0.000755727
-0.000755786
-0.000755835
-0.000755875
-0.000755906
-0.00075593
-0.000755949
-0.000755964
-0.000755975
-0.000755985
-0.000755994
-0.000756002
-0.000756009
-0.000756015
-0.000756018
-0.000604801
-0.000604177
-0.000755236
-0.000755236
-0.000755238
-0.000755246
-0.000755258
-0.000755276
-0.000755301
-0.000755332
-0.000755371
-0.000755417
-0.00075547
-0.000755528
-0.00075559
-0.000755652
-0.000755712
-0.000755768
-0.000755818
-0.000755861
-0.000755897
-0.000755926
-0.000755949
-0.000755967
-0.000755982
-0.000755993
-0.000756003
-0.000756011
-0.000756019
-0.000756025
-0.00075603
-0.000756032
-0.000604811
-0.000604212
-0.000755284
-0.000755289
-0.000755296
-0.000755308
-0.000755326
-0.000755349
-0.000755377
-0.000755412
-0.000755452
-0.000755498
-0.000755548
-0.000755602
-0.000755657
-0.000755712
-0.000755764
-0.000755812
-0.000755855
-0.000755893
-0.000755924
-0.00075595
-0.00075597
-0.000755987
-0.000756001
-0.000756012
-0.000756021
-0.000756028
-0.000756035
-0.00075604
-0.000756044
-0.000756045
-0.000604822
-0.000453186
-0.000604266
-0.000604274
-0.000604283
-0.000604297
-0.000604314
-0.000604336
-0.000604361
-0.000604391
-0.000604425
-0.000604462
-0.000604502
-0.000604543
-0.000604584
-0.000604624
-0.000604662
-0.000604696
-0.000604726
-0.000604752
-0.000604774
-0.000604792
-0.000604807
-0.000604819
-0.000604829
-0.000604837
-0.000604843
-0.000604849
-0.000604853
-0.000604857
-0.000604859
-0.000604859
-0.000453633
-6.0246e-07
-7.53101e-07
-7.53082e-07
-7.5306e-07
-7.53031e-07
-7.52993e-07
-7.52942e-07
-7.52873e-07
-7.52777e-07
-7.52643e-07
-7.52454e-07
-7.52186e-07
-7.518e-07
-7.51239e-07
-7.50413e-07
-7.49178e-07
-7.47317e-07
-7.44471e-07
-2.11208e-06
-8.58204e-05
-0.000665944
-0.000741793
-0.000745802
-0.000748789
-0.000750836
-0.000752257
-0.000753277
-0.000754039
-0.000754633
-0.000755116
-0.000755524
-0.000604658
-7.51474e-07
-9.01754e-07
-9.01736e-07
-9.01716e-07
-9.0169e-07
-9.01657e-07
-9.01613e-07
-9.01553e-07
-9.0147e-07
-9.01353e-07
-9.01186e-07
-9.00947e-07
-9.00596e-07
-9.00075e-07
-8.99288e-07
-8.98074e-07
-8.9618e-07
-8.93193e-07
-2.31466e-06
-8.9252e-05
-0.000813103
-0.000889645
-0.000894619
-0.000898297
-0.000900811
-0.000902556
-0.000903806
-0.000904739
-0.000905463
-0.00090605
-0.000906543
-0.000755759
-7.49342e-07
-8.992e-07
-8.99188e-07
-8.99175e-07
-8.99161e-07
-8.99144e-07
-8.99121e-07
-8.9909e-07
-8.99047e-07
-8.98986e-07
-8.98896e-07
-8.98762e-07
-8.98557e-07
-8.98239e-07
-8.97728e-07
-8.96889e-07
-8.95486e-07
-8.93117e-07
-2.4472e-06
-9.07287e-05
-0.000813101
-0.000889583
-0.000894602
-0.000898271
-0.000900763
-0.000902488
-0.000903726
-0.00090465
-0.000905369
-0.000905951
-0.000906438
-0.000755665
-7.46687e-07
-8.96019e-07
-8.96014e-07
-8.9601e-07
-8.96008e-07
-8.96007e-07
-8.96008e-07
-8.96008e-07
-8.96008e-07
-8.96005e-07
-8.95998e-07
-8.9598e-07
-8.95939e-07
-8.95852e-07
-8.95672e-07
-8.95303e-07
-8.94558e-07
-8.93086e-07
-2.73275e-06
-9.41732e-05
-0.000814207
-0.00089034
-0.000895142
-0.000898601
-0.00090094
-0.000902565
-0.000903739
-0.000904623
-0.000905317
-0.00090588
-0.000906351
-0.000755582
-7.43187e-07
-8.9184e-07
-8.91842e-07
-8.91847e-07
-8.91858e-07
-8.91873e-07
-8.91896e-07
-8.91927e-07
-8.91969e-07
-8.92026e-07
-8.92102e-07
-8.92202e-07
-8.92332e-07
-8.92496e-07
-8.92691e-07
-8.92892e-07
-8.93019e-07
-8.9287e-07
-3.46579e-06
-0.000113848
-0.000817712
-0.000892471
-0.000896422
-0.000899324
-0.000901337
-0.000902773
-0.000903836
-0.000904654
-0.000905305
-0.000905838
-0.000906286
-0.000755512
-1.85163e-06
-1.99967e-06
-2.00063e-06
-2.00219e-06
-2.00451e-06
-2.00781e-06
-2.01245e-06
-2.01891e-06
-2.02793e-06
-2.04059e-06
-2.05854e-06
-2.08434e-06
-2.12225e-06
-2.17969e-06
-2.27097e-06
-2.427e-06
-2.72793e-06
-3.46936e-06
-3.65119e-05
-0.000273757
-0.000835818
-0.000896333
-0.000898394
-0.000900338
-0.00090188
-0.000903068
-0.000903993
-0.000904728
-0.000905325
-0.000905822
-0.000906241
-0.000755456
-8.32583e-05
-8.56316e-05
-8.56349e-05
-8.56448e-05
-8.56628e-05
-8.56915e-05
-8.57344e-05
-8.57968e-05
-8.5886e-05
-8.60133e-05
-8.61953e-05
-8.64586e-05
-8.68484e-05
-8.74467e-05
-8.84296e-05
-9.01831e-05
-9.38063e-05
-0.000119238
-0.000351143
-0.000765446
-0.000897894
-0.000898585
-0.00089988
-0.000901232
-0.000902408
-0.000903381
-0.000904175
-0.000904827
-0.00090537
-0.000905827
-0.000906215
-0.000755414
-0.000663394
-0.00081051
-0.000810437
-0.000810366
-0.000810298
-0.000810232
-0.00081017
-0.00081011
-0.000810051
-0.000809989
-0.000809915
-0.000809818
-0.000809684
-0.000809502
-0.000809421
-0.000809691
-0.000810996
-0.000814935
-0.000838521
-0.000896793
-0.000898483
-0.000899621
-0.000900784
-0.000901878
-0.000902843
-0.000903666
-0.000904358
-0.000904939
-0.00090543
-0.000905848
-0.000906204
-0.000755384
-0.000738824
-0.000886515
-0.00088644
-0.000886368
-0.000886304
-0.000886249
-0.000886206
-0.00088618
-0.000886178
-0.000886207
-0.000886273
-0.000886369
-0.000886468
-0.000886351
-0.000886266
-0.000886463
-0.000887397
-0.000889953
-0.000894451
-0.000897308
-0.000898907
-0.000900195
-0.000901327
-0.000902323
-0.000903182
-0.000903913
-0.000904532
-0.000905056
-0.000905501
-0.000905882
-0.000906207
-0.000755366
-0.000742587
-0.000891058
-0.000890991
-0.000890931
-0.000890883
-0.000890851
-0.000890842
-0.000890868
-0.000890948
-0.000891109
-0.000891388
-0.00089181
-0.000892408
-0.000892328
-0.000892206
-0.000892296
-0.000892884
-0.000894289
-0.000896499
-0.000898088
-0.000899193
-0.000900492
-0.00090166
-0.000902643
-0.000903459
-0.000904136
-0.000904702
-0.000905178
-0.000905583
-0.000905928
-0.000906223
-0.000755358
-0.000745519
-0.000894584
-0.000894526
-0.000894476
-0.000894441
-0.000894426
-0.000894441
-0.000894503
-0.000894641
-0.000894908
-0.000895336
-0.000895981
-0.000897602
-0.000897451
-0.000897038
-0.000896804
-0.000896911
-0.000897438
-0.000898245
-0.000898775
-0.000898902
-0.000900529
-0.000901891
-0.000902924
-0.000903723
-0.000904358
-0.000904877
-0.00090531
-0.000905675
-0.000905987
-0.000906251
-0.000755361
-0.000747612
-0.000897103
-0.000897051
-0.000897008
-0.000896981
-0.000896975
-0.000896999
-0.000897072
-0.000897222
-0.00089746
-0.000897432
-0.000897285
-0.000750681
-0.000751209
-0.000750464
-0.000749884
-0.0007496
-0.000749555
-0.000749586
-0.000749243
-0.000898075
-0.000900458
-0.000902196
-0.000903273
-0.000904027
-0.000904605
-0.000905069
-0.000905454
-0.000905779
-0.000906056
-0.000906291
-0.000755374
-0.000749132
-0.000898931
-0.000898884
-0.000898845
-0.00089882
-0.000898814
-0.000898834
-0.000898888
-0.000898983
-0.000899112
-0.000899157
-0.00074916
-0.000751234
-0.000902292
-0.000903117
-0.000903831
-0.000904413
-0.000904888
-0.000905281
-0.000905613
-0.000905895
-0.000906137
-0.000906341
-0.000755396
-0.000750268
-0.000900299
-0.000900254
-0.000900216
-0.00090019
-0.000900179
-0.000900187
-0.000900218
-0.000900272
-0.000900341
-0.00090039
-0.000750312
-0.000752878
-0.000903631
-0.000903995
-0.00090442
-0.000904827
-0.000905189
-0.000905506
-0.000905781
-0.000906019
-0.000906225
-0.0009064
-0.000755426
-0.000751144
-0.000901352
-0.000901309
-0.00090127
-0.00090124
-0.000901221
-0.000901215
-0.000901225
-0.00090125
-0.000901289
-0.000901331
-0.000751122
-0.00075377
-0.000904547
-0.000904704
-0.00090495
-0.000905221
-0.000905486
-0.000905731
-0.000905951
-0.000906148
-0.00090632
-0.000906467
-0.000755463
-0.000751838
-0.000902187
-0.000902143
-0.000902102
-0.000902066
-0.000902037
-0.000902016
-0.000902006
-0.000902008
-0.000902024
-0.000902055
-0.000751732
-0.000754331
-0.000905185
-0.000905253
-0.000905394
-0.000905572
-0.000905761
-0.000905945
-0.000906118
-0.000906276
-0.000906417
-0.000906538
-0.000755506
-0.000752401
-0.000902864
-0.000902819
-0.000902774
-0.000902731
-0.000902692
-0.000902656
-0.000902624
-0.0009026
-0.000902589
-0.000902602
-0.000752186
-0.000754711
-0.000905644
-0.000905674
-0.000905758
-0.000905874
-0.000906007
-0.000906144
-0.000906276
-0.000906401
-0.000906514
-0.000906612
-0.000755552
-0.000752868
-0.000903423
-0.000903377
-0.000903328
-0.00090328
-0.00090323
-0.000903177
-0.000903122
-0.000903065
-0.000903015
-0.000902991
-0.000752495
-0.000754982
-0.000905985
-0.000906003
-0.000906054
-0.000906131
-0.000906223
-0.000906322
-0.000906422
-0.000906519
-0.000906608
-0.000906686
-0.000755601
-0.000753261
-0.000903895
-0.000903847
-0.000903796
-0.000903741
-0.000903682
-0.000903613
-0.000903532
-0.000903434
-0.000903322
-0.00090322
-0.000752631
-0.000755177
-0.00090625
-0.000906268
-0.000906299
-0.000906348
-0.00090641
-0.00090648
-0.000906555
-0.000906628
-0.000906698
-0.000906758
-0.000755651
-0.000753596
-0.000904297
-0.000904249
-0.000904196
-0.000904139
-0.000904072
-0.000903992
-0.000903887
-0.000903743
-0.000903539
-0.000903268
-0.000752457
-0.000755299
-0.000906456
-0.000906492
-0.000906507
-0.000906532
-0.000906571
-0.000906619
-0.000906673
-0.000906728
-0.000906782
-0.000906828
-0.0007557
-0.000753886
-0.000904645
-0.000904598
-0.000904546
-0.000904488
-0.000904421
-0.000904336
-0.000904221
-0.000904048
-0.00090375
-0.00090316
-0.000902391
-0.00075367
-0.000754652
-0.000755202
-0.000755568
-0.000755839
-0.000756052
-0.000756138
-0.000755928
-0.000906446
-0.000906573
-0.00090667
-0.000906684
-0.000906688
-0.000906708
-0.000906739
-0.000906777
-0.000906818
-0.000906859
-0.000906894
-0.000755748
-0.000754137
-0.000904948
-0.000904904
-0.000904854
-0.000904801
-0.000904739
-0.000904663
-0.000904565
-0.000904431
-0.000904243
-0.000903988
-0.000903769
-0.000904824
-0.000905614
-0.000906174
-0.000906581
-0.000906887
-0.000907121
-0.000907269
-0.00090718
-0.000906832
-0.000906825
-0.000906834
-0.00090682
-0.000906812
-0.000906821
-0.000906841
-0.000906868
-0.000906898
-0.000906929
-0.000906956
-0.000755793
-0.000754356
-0.000905214
-0.000905173
-0.000905129
-0.000905082
-0.000905031
-0.000904972
-0.000904902
-0.000904821
-0.000904735
-0.000904673
-0.000904731
-0.000905236
-0.000905747
-0.000906177
-0.000906518
-0.000906784
-0.000906983
-0.000907115
-0.000907149
-0.000907042
-0.000906982
-0.000906943
-0.000906918
-0.000906908
-0.000906912
-0.000906926
-0.000906945
-0.000906968
-0.000906992
-0.000907012
-0.000755836
-0.000754547
-0.000905447
-0.00090541
-0.000905373
-0.000905335
-0.000905296
-0.000905256
-0.000905215
-0.000905177
-0.000905156
-0.000905178
-0.000905297
-0.000905589
-0.000905927
-0.000906243
-0.000906515
-0.000906734
-0.000906902
-0.000907017
-0.000907073
-0.000907053
-0.000907025
-0.000907001
-0.000906986
-0.000906981
-0.000906985
-0.000906996
-0.000907011
-0.000907029
-0.000907047
-0.000907063
-0.000755875
-0.000754712
-0.00090565
-0.000905619
-0.000905589
-0.00090556
-0.000905534
-0.00090551
-0.000905492
-0.000905485
-0.0009055
-0.000905554
-0.000905672
-0.00090587
-0.000906104
-0.000906338
-0.000906549
-0.000906727
-0.000906868
-0.000906968
-0.000907028
-0.000907045
-0.000907045
-0.00090704
-0.000907037
-0.000907039
-0.000907045
-0.000907055
-0.000907067
-0.000907082
-0.000907096
-0.000907108
-0.00075591
-0.000754855
-0.000905826
-0.000905802
-0.000905778
-0.000905759
-0.000905744
-0.000905734
-0.000905733
-0.000905745
-0.000905778
-0.000905841
-0.000905945
-0.000906092
-0.000906264
-0.00090644
-0.000906604
-0.000906748
-0.000906866
-0.000906954
-0.000907014
-0.000907046
-0.000907063
-0.000907072
-0.000907078
-0.000907085
-0.000907093
-0.000907103
-0.000907115
-0.000907127
-0.000907139
-0.000907148
-0.000755941
-0.000754977
-0.000905977
-0.000905959
-0.000905943
-0.000905932
-0.000905926
-0.000905927
-0.000905938
-0.000905961
-0.000906002
-0.000906066
-0.000906156
-0.000906272
-0.000906404
-0.00090654
-0.00090667
-0.000906787
-0.000906885
-0.000906963
-0.00090702
-0.000907059
-0.000907084
-0.000907101
-0.000907113
-0.000907124
-0.000907134
-0.000907144
-0.000907155
-0.000907166
-0.000907176
-0.000907183
-0.000755969
-0.000755079
-0.000906105
-0.000906093
-0.000906083
-0.00090608
-0.000906082
-0.000906092
-0.000906111
-0.000906141
-0.000906186
-0.000906247
-0.000906326
-0.000906421
-0.000906526
-0.000906634
-0.000906739
-0.000906835
-0.000906918
-0.000906986
-0.000907039
-0.000907078
-0.000907107
-0.000907128
-0.000907144
-0.000907157
-0.000907169
-0.000907179
-0.000907189
-0.000907199
-0.000907208
-0.000907213
-0.000755993
-0.000755163
-0.000906211
-0.000906205
-0.000906201
-0.000906204
-0.000906214
-0.00090623
-0.000906255
-0.00090629
-0.000906336
-0.000906395
-0.000906465
-0.000906545
-0.000906632
-0.000906721
-0.000906808
-0.000906888
-0.000906958
-0.000907018
-0.000907066
-0.000907104
-0.000907133
-0.000907155
-0.000907172
-0.000907187
-0.000907199
-0.000907209
-0.000907219
-0.000907227
-0.000907235
-0.000907238
-0.000756013
-0.000755229
-0.000906295
-0.000906295
-0.000906298
-0.000906307
-0.000906323
-0.000906345
-0.000906375
-0.000906414
-0.000906461
-0.000906517
-0.000906581
-0.000906652
-0.000906727
-0.000906802
-0.000906875
-0.000906942
-0.000907002
-0.000907054
-0.000907097
-0.000907132
-0.000907159
-0.000907181
-0.000907199
-0.000907213
-0.000907225
-0.000907235
-0.000907243
-0.000907251
-0.000907257
-0.00090726
-0.00075603
-0.000755282
-0.000906363
-0.000906369
-0.000906378
-0.000906393
-0.000906414
-0.000906442
-0.000906476
-0.000906518
-0.000906566
-0.000906622
-0.000906682
-0.000906747
-0.000906813
-0.000906879
-0.000906942
-0.000907
-0.000907051
-0.000907096
-0.000907134
-0.000907164
-0.000907189
-0.000907209
-0.000907226
-0.000907239
-0.00090725
-0.000907259
-0.000907267
-0.000907273
-0.000907278
-0.00090728
-0.000756046
-0.000604268
-0.00075536
-0.00075537
-0.000755382
-0.000755398
-0.00075542
-0.000755447
-0.000755479
-0.000755517
-0.000755559
-0.000755605
-0.000755655
-0.000755706
-0.000755757
-0.000755807
-0.000755853
-0.000755896
-0.000755933
-0.000755966
-0.000755993
-0.000756015
-0.000756033
-0.000756048
-0.00075606
-0.00075607
-0.000756078
-0.000756085
-0.00075609
-0.000756095
-0.000756098
-0.000756098
-0.000604861
-6.01365e-07
-7.51728e-07
-7.5171e-07
-7.51687e-07
-7.51658e-07
-7.5162e-07
-7.51569e-07
-7.515e-07
-7.51404e-07
-7.51271e-07
-7.51084e-07
-7.50822e-07
-7.50451e-07
-7.49924e-07
-7.49172e-07
-7.48105e-07
-7.46612e-07
-7.44574e-07
-3.15722e-06
-9.45581e-05
-0.000671182
-0.000744796
-0.000747237
-0.000749357
-0.000750998
-0.000752236
-0.000753174
-0.000753899
-0.000754475
-0.000754946
-0.000755343
-0.000604503
-7.50273e-07
-9.00314e-07
-9.00296e-07
-9.00275e-07
-9.00249e-07
-9.00216e-07
-9.00171e-07
-9.0011e-07
-9.00026e-07
-8.99908e-07
-8.99741e-07
-8.99504e-07
-8.99164e-07
-8.98672e-07
-8.97957e-07
-8.96917e-07
-8.95425e-07
-8.93345e-07
-3.43988e-06
-0.000100905
-0.000819499
-0.00089341
-0.000896435
-0.000899036
-0.000901043
-0.000902554
-0.000903699
-0.000904582
-0.000905282
-0.000905853
-0.000906331
-0.00075557
-7.4838e-07
-8.98046e-07
-8.98034e-07
-8.98021e-07
-8.98007e-07
-8.97989e-07
-8.97965e-07
-8.97932e-07
-8.97887e-07
-8.97823e-07
-8.9773e-07
-8.97594e-07
-8.97391e-07
-8.97087e-07
-8.96626e-07
-8.95922e-07
-8.94859e-07
-8.93304e-07
-3.772e-06
-0.000104465
-0.000819919
-0.000893522
-0.00089651
-0.000899059
-0.000901024
-0.000902506
-0.000903633
-0.000904505
-0.000905197
-0.000905762
-0.000906234
-0.000755483
-7.46128e-07
-8.95348e-07
-8.95342e-07
-8.95339e-07
-8.95336e-07
-8.95334e-07
-8.95333e-07
-8.95332e-07
-8.95328e-07
-8.95322e-07
-8.9531e-07
-8.95285e-07
-8.95238e-07
-8.9515e-07
-8.9499e-07
-8.94701e-07
-8.94195e-07
-8.93362e-07
-4.51636e-06
-0.000113031
-0.00082167
-0.00089437
-0.000897069
-0.000899393
-0.000901205
-0.000902589
-0.000903654
-0.000904486
-0.000905153
-0.0009057
-0.000906156
-0.000755407
-7.43434e-07
-8.92128e-07
-8.9213e-07
-8.92135e-07
-8.92145e-07
-8.9216e-07
-8.92181e-07
-8.92211e-07
-8.9225e-07
-8.92303e-07
-8.92373e-07
-8.92464e-07
-8.92581e-07
-8.92729e-07
-8.92907e-07
-8.93107e-07
-8.93304e-07
-8.93455e-07
-6.68424e-06
-0.000153997
-0.000826226
-0.000896166
-0.000898147
-0.000900021
-0.000901563
-0.000902786
-0.000903751
-0.000904522
-0.000905148
-0.000905666
-0.0009061
-0.000755346
-2.52342e-06
-2.6725e-06
-2.67475e-06
-2.67841e-06
-2.68382e-06
-2.69155e-06
-2.70238e-06
-2.71748e-06
-2.73858e-06
-2.76823e-06
-2.81036e-06
-2.87122e-06
-2.96128e-06
-3.09928e-06
-3.3223e-06
-3.71344e-06
-4.49974e-06
-6.70621e-06
-0.000101951
-0.000370327
-0.000852157
-0.00089849
-0.000899497
-0.000900804
-0.000902021
-0.000903052
-0.000903901
-0.000904598
-0.000905175
-0.000905658
-0.000906064
-0.000755299
-8.89476e-05
-9.26673e-05
-9.26834e-05
-9.2714e-05
-9.2763e-05
-9.28358e-05
-9.29406e-05
-9.30893e-05
-9.32995e-05
-9.35972e-05
-9.40225e-05
-9.46396e-05
-9.55578e-05
-9.69768e-05
-9.9311e-05
-0.000103513
-0.000112545
-0.000198064
-0.00068637
-0.000851974
-0.000899861
-0.000899746
-0.000900485
-0.000901481
-0.000902462
-0.000903332
-0.000904074
-0.000904698
-0.000905224
-0.00090567
-0.000906047
-0.000755266
-0.000667752
-0.000815673
-0.000815601
-0.00081553
-0.000815465
-0.000815404
-0.000815349
-0.0008153
-0.000815259
-0.000815225
-0.000815197
-0.000815175
-0.000815163
-0.000815188
-0.000815435
-0.000816237
-0.00081836
-0.000823558
-0.000893179
-0.000898829
-0.000899609
-0.000900252
-0.000901085
-0.000901979
-0.000902831
-0.000903591
-0.000904249
-0.000904811
-0.00090529
-0.000905699
-0.000906046
-0.000755245
-0.000741351
-0.000889558
-0.000889483
-0.000889411
-0.000889348
-0.000889293
-0.000889252
-0.000889228
-0.000889229
-0.000889264
-0.000889342
-0.000889461
-0.000889606
-0.000889603
-0.000889693
-0.000890118
-0.000891253
-0.000893744
-0.000896658
-0.000898523
-0.000899548
-0.00090051
-0.000901451
-0.000902334
-0.000903128
-0.000903823
-0.00090442
-0.000904931
-0.000905368
-0.000905741
-0.000906059
-0.000755236
-0.000743667
-0.000892354
-0.000892287
-0.000892227
-0.000892179
-0.000892145
-0.000892134
-0.000892157
-0.00089223
-0.00089238
-0.00089264
-0.000893037
-0.000893593
-0.000893581
-0.000893576
-0.000893813
-0.00089451
-0.000895861
-0.000897521
-0.000898663
-0.000899502
-0.000900627
-0.000901687
-0.000902606
-0.000903384
-0.000904038
-0.00090459
-0.000905058
-0.000905456
-0.000905796
-0.000906084
-0.000755238
-0.000745815
-0.000894939
-0.00089488
-0.00089483
-0.000894793
-0.000894775
-0.000894785
-0.000894838
-0.000894961
-0.000895201
-0.000895592
-0.000896173
-0.000897577
-0.000897444
-0.000897127
-0.000897019
-0.000897239
-0.000897806
-0.00089851
-0.000898951
-0.000899056